# LAMMPS data file written by OVITO Basic 3.10.3

320 atoms
3 atom types

0.0 16.04 xlo xhi
0.0 16.04 ylo yhi
0.0 16.04 zlo zhi

Atom Type Labels

1 Ti
2 Ba
3 O

Masses

1 47.867  # Ti
2 137.327  # Ba
3 15.9994  # O

Atoms  # atomic

1 1 0.0 0.0 0.0
2 2 2.005 2.005 2.005
3 3 2.005 0.0 0.0
4 3 0.0 2.005 0.0
5 3 0.0 0.0 2.005
6 1 0.0 0.0 4.01
7 2 2.005 2.005 6.015
8 3 2.005 0.0 4.01
9 3 0.0 2.005 4.01
10 3 0.0 0.0 6.015
11 1 0.0 0.0 8.02
12 2 2.005 2.005 10.025
13 3 2.005 0.0 8.02
14 3 0.0 2.005 8.02
15 3 0.0 0.0 10.025
16 1 0.0 0.0 12.03
17 2 2.005 2.005 14.035
18 3 2.005 0.0 12.03
19 3 0.0 2.005 12.03
20 3 0.0 0.0 14.035
21 1 0.0 4.01 0.0
22 2 2.005 6.015 2.005
23 3 2.005 4.01 0.0
24 3 0.0 6.015 0.0
25 3 0.0 4.01 2.005
26 1 0.0 4.01 4.01
27 2 2.005 6.015 6.015
28 3 2.005 4.01 4.01
29 3 0.0 6.015 4.01
30 3 0.0 4.01 6.015
31 1 0.0 4.01 8.02
32 2 2.005 6.015 10.025
33 3 2.005 4.01 8.02
34 3 0.0 6.015 8.02
35 3 0.0 4.01 10.025
36 1 0.0 4.01 12.03
37 2 2.005 6.015 14.035
38 3 2.005 4.01 12.03
39 3 0.0 6.015 12.03
40 3 0.0 4.01 14.035
41 1 0.0 8.02 0.0
42 2 2.005 10.025 2.005
43 3 2.005 8.02 0.0
44 3 0.0 10.025 0.0
45 3 0.0 8.02 2.005
46 1 0.0 8.02 4.01
47 2 2.005 10.025 6.015
48 3 2.005 8.02 4.01
49 3 0.0 10.025 4.01
50 3 0.0 8.02 6.015
51 1 0.0 8.02 8.02
52 2 2.005 10.025 10.025
53 3 2.005 8.02 8.02
54 3 0.0 10.025 8.02
55 3 0.0 8.02 10.025
56 1 0.0 8.02 12.03
57 2 2.005 10.025 14.035
58 3 2.005 8.02 12.03
59 3 0.0 10.025 12.03
60 3 0.0 8.02 14.035
61 1 0.0 12.03 0.0
62 2 2.005 14.035 2.005
63 3 2.005 12.03 0.0
64 3 0.0 14.035 0.0
65 3 0.0 12.03 2.005
66 1 0.0 12.03 4.01
67 2 2.005 14.035 6.015
68 3 2.005 12.03 4.01
69 3 0.0 14.035 4.01
70 3 0.0 12.03 6.015
71 1 0.0 12.03 8.02
72 2 2.005 14.035 10.025
73 3 2.005 12.03 8.02
74 3 0.0 14.035 8.02
75 3 0.0 12.03 10.025
76 1 0.0 12.03 12.03
77 2 2.005 14.035 14.035
78 3 2.005 12.03 12.03
79 3 0.0 14.035 12.03
80 3 0.0 12.03 14.035
81 1 4.01 0.0 0.0
82 2 6.015 2.005 2.005
83 3 6.015 0.0 0.0
84 3 4.01 2.005 0.0
85 3 4.01 0.0 2.005
86 1 4.01 0.0 4.01
87 2 6.015 2.005 6.015
88 3 6.015 0.0 4.01
89 3 4.01 2.005 4.01
90 3 4.01 0.0 6.015
91 1 4.01 0.0 8.02
92 2 6.015 2.005 10.025
93 3 6.015 0.0 8.02
94 3 4.01 2.005 8.02
95 3 4.01 0.0 10.025
96 1 4.01 0.0 12.03
97 2 6.015 2.005 14.035
98 3 6.015 0.0 12.03
99 3 4.01 2.005 12.03
100 3 4.01 0.0 14.035
101 1 4.01 4.01 0.0
102 2 6.015 6.015 2.005
103 3 6.015 4.01 0.0
104 3 4.01 6.015 0.0
105 3 4.01 4.01 2.005
106 1 4.01 4.01 4.01
107 2 6.015 6.015 6.015
108 3 6.015 4.01 4.01
109 3 4.01 6.015 4.01
110 3 4.01 4.01 6.015
111 1 4.01 4.01 8.02
112 2 6.015 6.015 10.025
113 3 6.015 4.01 8.02
114 3 4.01 6.015 8.02
115 3 4.01 4.01 10.025
116 1 4.01 4.01 12.03
117 2 6.015 6.015 14.035
118 3 6.015 4.01 12.03
119 3 4.01 6.015 12.03
120 3 4.01 4.01 14.035
121 1 4.01 8.02 0.0
122 2 6.015 10.025 2.005
123 3 6.015 8.02 0.0
124 3 4.01 10.025 0.0
125 3 4.01 8.02 2.005
126 1 4.01 8.02 4.01
127 2 6.015 10.025 6.015
128 3 6.015 8.02 4.01
129 3 4.01 10.025 4.01
130 3 4.01 8.02 6.015
131 1 4.01 8.02 8.02
132 2 6.015 10.025 10.025
133 3 6.015 8.02 8.02
134 3 4.01 10.025 8.02
135 3 4.01 8.02 10.025
136 1 4.01 8.02 12.03
137 2 6.015 10.025 14.035
138 3 6.015 8.02 12.03
139 3 4.01 10.025 12.03
140 3 4.01 8.02 14.035
141 1 4.01 12.03 0.0
142 2 6.015 14.035 2.005
143 3 6.015 12.03 0.0
144 3 4.01 14.035 0.0
145 3 4.01 12.03 2.005
146 1 4.01 12.03 4.01
147 2 6.015 14.035 6.015
148 3 6.015 12.03 4.01
149 3 4.01 14.035 4.01
150 3 4.01 12.03 6.015
151 1 4.01 12.03 8.02
152 2 6.015 14.035 10.025
153 3 6.015 12.03 8.02
154 3 4.01 14.035 8.02
155 3 4.01 12.03 10.025
156 1 4.01 12.03 12.03
157 2 6.015 14.035 14.035
158 3 6.015 12.03 12.03
159 3 4.01 14.035 12.03
160 3 4.01 12.03 14.035
161 1 8.02 0.0 0.0
162 2 10.025 2.005 2.005
163 3 10.025 0.0 0.0
164 3 8.02 2.005 0.0
165 3 8.02 0.0 2.005
166 1 8.02 0.0 4.01
167 2 10.025 2.005 6.015
168 3 10.025 0.0 4.01
169 3 8.02 2.005 4.01
170 3 8.02 0.0 6.015
171 1 8.02 0.0 8.02
172 2 10.025 2.005 10.025
173 3 10.025 0.0 8.02
174 3 8.02 2.005 8.02
175 3 8.02 0.0 10.025
176 1 8.02 0.0 12.03
177 2 10.025 2.005 14.035
178 3 10.025 0.0 12.03
179 3 8.02 2.005 12.03
180 3 8.02 0.0 14.035
181 1 8.02 4.01 0.0
182 2 10.025 6.015 2.005
183 3 10.025 4.01 0.0
184 3 8.02 6.015 0.0
185 3 8.02 4.01 2.005
186 1 8.02 4.01 4.01
187 2 10.025 6.015 6.015
188 3 10.025 4.01 4.01
189 3 8.02 6.015 4.01
190 3 8.02 4.01 6.015
191 1 8.02 4.01 8.02
192 2 10.025 6.015 10.025
193 3 10.025 4.01 8.02
194 3 8.02 6.015 8.02
195 3 8.02 4.01 10.025
196 1 8.02 4.01 12.03
197 2 10.025 6.015 14.035
198 3 10.025 4.01 12.03
199 3 8.02 6.015 12.03
200 3 8.02 4.01 14.035
201 1 8.02 8.02 0.0
202 2 10.025 10.025 2.005
203 3 10.025 8.02 0.0
204 3 8.02 10.025 0.0
205 3 8.02 8.02 2.005
206 1 8.02 8.02 4.01
207 2 10.025 10.025 6.015
208 3 10.025 8.02 4.01
209 3 8.02 10.025 4.01
210 3 8.02 8.02 6.015
211 1 8.02 8.02 8.02
212 2 10.025 10.025 10.025
213 3 10.025 8.02 8.02
214 3 8.02 10.025 8.02
215 3 8.02 8.02 10.025
216 1 8.02 8.02 12.03
217 2 10.025 10.025 14.035
218 3 10.025 8.02 12.03
219 3 8.02 10.025 12.03
220 3 8.02 8.02 14.035
221 1 8.02 12.03 0.0
222 2 10.025 14.035 2.005
223 3 10.025 12.03 0.0
224 3 8.02 14.035 0.0
225 3 8.02 12.03 2.005
226 1 8.02 12.03 4.01
227 2 10.025 14.035 6.015
228 3 10.025 12.03 4.01
229 3 8.02 14.035 4.01
230 3 8.02 12.03 6.015
231 1 8.02 12.03 8.02
232 2 10.025 14.035 10.025
233 3 10.025 12.03 8.02
234 3 8.02 14.035 8.02
235 3 8.02 12.03 10.025
236 1 8.02 12.03 12.03
237 2 10.025 14.035 14.035
238 3 10.025 12.03 12.03
239 3 8.02 14.035 12.03
240 3 8.02 12.03 14.035
241 1 12.03 0.0 0.0
242 2 14.035 2.005 2.005
243 3 14.035 0.0 0.0
244 3 12.03 2.005 0.0
245 3 12.03 0.0 2.005
246 1 12.03 0.0 4.01
247 2 14.035 2.005 6.015
248 3 14.035 0.0 4.01
249 3 12.03 2.005 4.01
250 3 12.03 0.0 6.015
251 1 12.03 0.0 8.02
252 2 14.035 2.005 10.025
253 3 14.035 0.0 8.02
254 3 12.03 2.005 8.02
255 3 12.03 0.0 10.025
256 1 12.03 0.0 12.03
257 2 14.035 2.005 14.035
258 3 14.035 0.0 12.03
259 3 12.03 2.005 12.03
260 3 12.03 0.0 14.035
261 1 12.03 4.01 0.0
262 2 14.035 6.015 2.005
263 3 14.035 4.01 0.0
264 3 12.03 6.015 0.0
265 3 12.03 4.01 2.005
266 1 12.03 4.01 4.01
267 2 14.035 6.015 6.015
268 3 14.035 4.01 4.01
269 3 12.03 6.015 4.01
270 3 12.03 4.01 6.015
271 1 12.03 4.01 8.02
272 2 14.035 6.015 10.025
273 3 14.035 4.01 8.02
274 3 12.03 6.015 8.02
275 3 12.03 4.01 10.025
276 1 12.03 4.01 12.03
277 2 14.035 6.015 14.035
278 3 14.035 4.01 12.03
279 3 12.03 6.015 12.03
280 3 12.03 4.01 14.035
281 1 12.03 8.02 0.0
282 2 14.035 10.025 2.005
283 3 14.035 8.02 0.0
284 3 12.03 10.025 0.0
285 3 12.03 8.02 2.005
286 1 12.03 8.02 4.01
287 2 14.035 10.025 6.015
288 3 14.035 8.02 4.01
289 3 12.03 10.025 4.01
290 3 12.03 8.02 6.015
291 1 12.03 8.02 8.02
292 2 14.035 10.025 10.025
293 3 14.035 8.02 8.02
294 3 12.03 10.025 8.02
295 3 12.03 8.02 10.025
296 1 12.03 8.02 12.03
297 2 14.035 10.025 14.035
298 3 14.035 8.02 12.03
299 3 12.03 10.025 12.03
300 3 12.03 8.02 14.035
301 1 12.03 12.03 0.0
302 2 14.035 14.035 2.005
303 3 14.035 12.03 0.0
304 3 12.03 14.035 0.0
305 3 12.03 12.03 2.005
306 1 12.03 12.03 4.01
307 2 14.035 14.035 6.015
308 3 14.035 12.03 4.01
309 3 12.03 14.035 4.01
310 3 12.03 12.03 6.015
311 1 12.03 12.03 8.02
312 2 14.035 14.035 10.025
313 3 14.035 12.03 8.02
314 3 12.03 14.035 8.02
315 3 12.03 12.03 10.025
316 1 12.03 12.03 12.03
317 2 14.035 14.035 14.035
318 3 14.035 12.03 12.03
319 3 12.03 14.035 12.03
320 3 12.03 12.03 14.035
